ITEM: TIMESTEP
0
ITEM: NUMBER OF ATOMS
4000
ITEM: BOX BOUNDS
0.000000 10.000000
0.000000 10.000000
0.000000 10.000000
ITEM: ATOMS id type x y z
1 1 -0.006959 0.003678 -0.023185
2 2 0.503968 0.000305 0.498976
3 2 0.010637 0.491934 0.487171
4 2 0.516183 0.497443 -0.004021
5 1 0.985781 -0.017379 -0.031202
6 2 1.487965 0.004189 0.497469
7 2 1.012671 0.507384 0.486961
8 2 1.508767 0.499409 -0.012469
9 1 2.008782 0.010286 -0.042435
10 2 2.503065 0.005402 0.510533
11 2 2.008381 0.489176 0.493360
12 2 2.515037 0.492092 0.003852
13 1 3.001198 -0.014728 -0.027123
14 2 3.490580 -0.006411 0.501676
15 2 3.012069 0.490905 0.487827
16 2 3.512549 0.496530 -0.007222
17 1 3.991026 -0.006075 -0.015074
18 2 4.513805 -0.002425 0.497863
19 2 4.027214 0.488264 0.492312
20 2 4.513438 0.491975 -0.008073
21 1 4.989273 0.016284 -0.006249
22 2 5.500193 0.005079 0.489949
23 2 5.004852 0.482541 0.470223
24 2 5.530708 0.487707 -0.001032
25 1 6.013863 0.005121 -0.017343
26 2 6.511605 0.001803 0.503803
27 2 5.998808 0.495850 0.490001
28 2 6.506330 0.510506 -0.016664
29 1 6.994171 -0.001939 -0.009595
30 2 7.476865 0.017212 0.492114
31 2 7.007265 0.496687 0.499538
32 2 7.508308 0.509861 -0.010427
33 1 7.976003 -0.005777 -0.011668
34 2 8.518498 -0.006798 0.496547
35 2 8.002689 0.500762 0.485018
36 2 8.511570 0.513366 -0.006716
37 1 8.999698 0.006641 -0.038933
38 2 9.509120 -0.008581 0.487696
39 2 9.013694 0.476008 0.482872
40 2 9.519217 0.506423 -0.006721
41 1 -0.016654 1.030508 -0.007345
42 2 0.499013 0.995910 0.504764
43 2 0.005862 1.485728 0.477641
44 2 0.533313 1.504058 0.012410
45 1 0.975964 1.007465 -0.026510
46 2 1.485953 0.998872 0.477580
47 2 1.021916 1.511566 0.504950
48 2 1.507233 1.506138 -0.029746
49 1 2.027518 1.011375 -0.054862
50 2 2.512689 1.011953 0.497085
51 2 2.011397 1.491804 0.496730
52 2 2.527484 1.507936 0.023898
53 1 2.997295 0.988403 -0.012298
54 2 3.488904 0.986943 0.513118
55 2 3.018665 1.477624 0.483282
56 2 3.505180 1.488090 -0.002328
57 1 3.998393 0.988826 -0.016533
58 2 4.506245 1.005599 0.496449
59 2 4.032749 1.487824 0.479467
60 2 4.531731 1.480700 -0.007492
61 1 4.992827 1.024813 -0.024865
62 2 5.488872 0.992509 0.479169
63 2 5.007526 1.500110 0.471836
64 2 5.527108 1.485406 0.014605
65 1 6.014417 1.001777 -0.023193
66 2 6.503769 1.007018 0.503192
67 2 6.021345 1.505221 0.510533
68 2 6.509248 1.507630 -0.027687
69 1 7.002306 0.997760 -0.010444
70 2 7.470705 1.013382 0.476673
71 2 7.020542 1.491890 0.520550
72 2 7.517996 1.501116 -0.023435
73 1 7.974159 0.982324 0.008349
74 2 8.504801 0.977872 0.489527
75 2 8.005999 1.505904 0.478737
76 2 8.520285 1.521325 -0.018859
77 1 8.974966 0.997771 -0.047049
78 2 9.514913 0.996066 0.490975
79 2 9.009079 1.468675 0.483367
80 2 9.537614 1.511488 -0.020177
81 1 0.006568 1.993811 -0.028341
82 2 0.504858 1.986185 0.490058
83 2 0.009693 2.503330 0.496938
84 2 0.518088 2.492762 -0.004616
85 1 0.979058 1.962642 -0.027618
86 2 1.485499 2.001701 0.505442
87 2 1.019213 2.495109 0.493424
88 2 1.492451 2.493147 -0.011174
89 1 2.009307 2.004431 -0.042111
90 2 2.513395 2.014985 0.511558
91 2 2.005134 2.478096 0.509444
92 2 2.523247 2.506424 0.009647
93 1 3.011029 1.980253 -0.027797
94 2 3.484309 1.988561 0.502766
95 2 3.001507 2.486172 0.490109
96 2 3.519789 2.499828 -0.016772
97 1 4.002379 1.988279 -0.006979
98 2 4.489332 1.994014 0.477126
99 2 4.034310 2.488430 0.505585
100 2 4.520012 2.493780 -0.011792
101 1 4.987469 2.004862 -0.001127
102 2 5.480896 2.001368 0.485418
103 2 4.999594 2.485104 0.484068
104 2 5.525064 2.495932 -0.008990
105 1 6.020690 1.993933 -0.009831
106 2 6.498257 1.984119 0.492147
107 2 5.998027 2.504108 0.470546
108 2 6.507393 2.494151 -0.017635
109 1 6.984764 1.989065 -0.021863
110 2 7.482630 2.019010 0.488219
111 2 7.008806 2.491580 0.515685
112 2 7.495206 2.505145 -0.009263
113 1 7.976720 1.987902 -0.022189
114 2 8.513862 1.973820 0.498077
115 2 8.030066 2.473421 0.476556
116 2 8.527113 2.508311 -0.006935
117 1 9.000286 1.997679 -0.034130
118 2 9.511089 1.992104 0.472090
119 2 9.029435 2.486078 0.492621
120 2 9.532354 2.491447 0.012622
121 1 -0.009177 3.008508 -0.033593
122 2 0.492248 2.992375 0.509607
123 2 0.011522 3.496589 0.485323
124 2 0.509687 3.487903 0.001113
125 1 0.987887 2.969413 -0.032847
126 2 1.490214 3.002130 0.494689
127 2 1.022865 3.499828 0.495141
128 2 1.514971 3.499206 -0.005569
129 1 2.014405 3.013310 -0.039389
130 2 2.501141 3.006986 0.507059
131 2 1.997841 3.505440 0.493356
132 2 2.505814 3.484721 0.018427
133 1 3.012367 2.992059 -0.030108
134 2 3.494354 2.995966 0.493451
135 2 3.003760 3.486627 0.482284
136 2 3.519818 3.506745 -0.016052
137 1 4.004489 3.010578 0.000501
138 2 4.522737 2.997706 0.507782
139 2 4.022622 3.491863 0.483664
140 2 4.527374 3.503231 -0.004609
141 1 4.985882 3.005796 0.013899
142 2 5.506497 2.988530 0.481091
143 2 5.018290 3.478825 0.459415
144 2 5.540149 3.483717 0.002302
145 1 6.025734 3.014926 -0.007247
146 2 6.507026 2.990211 0.505336
147 2 6.009217 3.490906 0.486683
148 2 6.519771 3.507524 -0.027231
149 1 6.998012 2.984523 -0.022379
150 2 7.494262 3.014739 0.505361
151 2 6.994664 3.498245 0.501552
152 2 7.515994 3.512238 -0.013730
153 1 7.974265 3.011332 -0.004145
154 2 8.491621 3.003591 0.499528
155 2 8.010683 3.510131 0.464168
156 2 8.518525 3.508440 -0.011253
157 1 8.988634 3.011686 -0.047374
158 2 9.498817 2.995594 0.498170
159 2 9.012777 3.462357 0.499296
160 2 9.515318 3.502971 0.004359
161 1 -0.015381 4.006317 -0.015919
162 2 0.489384 3.984697 0.484573
163 2 0.021090 4.482143 0.481033
164 2 0.504546 4.479989 0.011744
165 1 0.975908 3.979087 -0.041214
166 2 1.483577 4.014420 0.506172
167 2 1.020660 4.517450 0.484170
168 2 1.505825 4.506094 -0.007619
169 1 2.000024 4.026441 -0.063080
170 2 2.508270 3.993009 0.490068
171 2 2.004351 4.484869 0.474607
172 2 2.521966 4.490651 0.004180
173 1 3.018034 3.970665 -0.029117
174 2 3.486865 3.997725 0.496061
175 2 3.010701 4.485332 0.473740
176 2 3.511619 4.490999 0.002913
177 1 3.976975 3.987069 -0.007706
178 2 4.526005 3.996078 0.493302
179 2 4.037748 4.493334 0.482051
180 2 4.508104 4.499626 0.006543
181 1 4.990717 4.030779 -0.002623
182 2 5.506139 4.010310 0.487253
183 2 5.022873 4.499754 0.473495
184 2 5.521474 4.494095 0.003918
185 1 6.014967 3.995660 -0.017564
186 2 6.503654 4.010594 0.520183
187 2 5.982267 4.469813 0.486491
188 2 6.507989 4.499484 0.004483
189 1 7.015359 3.987284 0.005893
190 2 7.484520 4.023411 0.488339
191 2 7.016141 4.507236 0.496241
192 2 7.481238 4.516725 -0.004195
193 1 7.968350 3.992328 -0.003777
194 2 8.529563 3.986137 0.510659
195 2 7.992020 4.518636 0.493951
196 2 8.499180 4.507201 -0.009539
197 1 9.009402 3.995822 -0.039982
198 2 9.494785 4.003326 0.499775
199 2 9.024133 4.468237 0.494918
200 2 9.519040 4.510624 0.007100
201 1 0.000710 5.004485 -0.010608
202 2 0.498171 4.998139 0.489535
203 2 0.013367 5.477921 0.493745
204 2 0.510188 5.508044 -0.001968
205 1 0.979381 5.004772 -0.026133
206 2 1.490301 5.008486 0.504653
207 2 1.020752 5.521500 0.500012
208 2 1.507896 5.500253 0.002743
209 1 2.011722 5.004348 -0.049692
210 2 2.520275 4.995768 0.495427
211 2 2.011146 5.489713 0.485591
212 2 2.495424 5.498339 0.004328
213 1 2.989777 4.978607 -0.022095
214 2 3.484649 4.981999 0.497679
215 2 3.005590 5.498242 0.490868
216 2 3.507080 5.494154 -0.006790
217 1 3.992988 4.989909 -0.005671
218 2 4.508879 4.993738 0.499295
219 2 4.018271 5.483562 0.500516
220 2 4.517019 5.489562 -0.023865
221 1 4.996833 5.013444 -0.001989
222 2 5.491340 5.008963 0.494707
223 2 5.024736 5.478109 0.476168
224 2 5.529474 5.494756 0.010631
225 1 6.015493 5.010524 -0.034809
226 2 6.508809 5.010893 0.501885
227 2 5.999553 5.501487 0.499280
228 2 6.498728 5.525561 -0.006953
229 1 6.983519 5.004257 -0.021244
230 2 7.486279 5.003975 0.500636
231 2 6.995106 5.490313 0.498706
232 2 7.517275 5.497879 0.000809
233 1 7.986426 4.996426 -0.028641
234 2 8.510736 4.983537 0.498733
235 2 8.010768 5.512844 0.486844
236 2 8.511917 5.509444 -0.022662
237 1 8.994541 5.009291 -0.049403
238 2 9.501065 5.001300 0.493816
239 2 9.028667 5.476977 0.478884
240 2 9.518642 5.500995 -0.014512
241 1 -0.001198 6.001449 -0.021528
242 2 0.500000 6.005322 0.494842
243 2 0.006487 6.491349 0.482933
244 2 0.517366 6.509195 0.002563
245 1 0.993271 5.990185 -0.009871
246 2 1.481870 6.001539 0.493453
247 2 0.993451 6.500888 0.491061
248 2 1.498209 6.486312 0.006960
249 1 2.016579 6.016647 -0.022903
250 2 2.513436 6.004764 0.516774
251 2 2.020668 6.503229 0.480349
252 2 2.526228 6.490685 -0.000299
253 1 2.991142 5.989639 -0.021685
254 2 3.482722 5.992641 0.503624
255 2 3.021635 6.499294 0.484671
256 2 3.509539 6.512136 0.017325
257 1 3.976696 5.992171 -0.015146
258 2 4.527314 6.001902 0.502005
259 2 4.023638 6.501403 0.492055
260 2 4.526488 6.498285 -0.003196
261 1 5.003688 6.018726 0.003171
262 2 5.503128 5.996317 0.486940
263 2 5.016430 6.480724 0.486110
264 2 5.526170 6.503675 0.001736
265 1 6.015737 6.013284 -0.008963
266 2 6.503263 6.012810 0.499732
267 2 6.005571 6.500463 0.496940
268 2 6.515738 6.520797 -0.009756
269 1 6.979954 6.001151 0.002294
270 2 7.479976 6.011201 0.499413
271 2 6.999388 6.496735 0.500027
272 2 7.514292 6.488210 -0.009202
273 1 7.970444 5.997938 -0.006696
274 2 8.529226 5.997937 0.500487
275 2 7.997596 6.490933 0.485018
276 2 8.523596 6.510222 -0.007384
277 1 9.006240 5.990225 -0.025670
278 2 9.496703 5.988970 0.488696
279 2 9.020830 6.479583 0.478638
280 2 9.531034 6.515447 -0.016158
281 1 -0.010458 7.010241 -0.025039
282 2 0.498201 6.988723 0.488716
283 2 -0.003460 7.478699 0.467942
284 2 0.515234 7.511792 -0.003920
285 1 0.989745 6.977271 -0.021937
286 2 1.475632 7.021865 0.493195
287 2 1.022130 7.511313 0.492407
288 2 1.514551 7.507886 0.002995
289 1 2.004705 7.031885 -0.039021
290 2 2.495748 6.999458 0.515685
291 2 2.006941 7.479176 0.481921
292 2 2.517307 7.493008 0.003337
293 1 3.004408 6.987249 -0.029138
294 2 3.498398 7.000400 0.489627
295 2 3.015425 7.494981 0.473313
296 2 3.515636 7.484286 -0.006115
297 1 3.986446 6.979858 -0.025600
298 2 4.517345 6.987511 0.488954
299 2 4.017238 7.482240 0.495461
300 2 4.522983 7.499579 0.018332
301 1 4.988901 7.016752 -0.000158
302 2 5.490592 7.003438 0.484806
303 2 5.004040 7.476758 0.457334
304 2 5.532964 7.486526 -0.011352
305 1 6.012308 7.009478 -0.031942
306 2 6.521845 7.002601 0.492473
307 2 5.998002 7.486066 0.486910
308 2 6.520821 7.482196 -0.002012
309 1 6.985768 7.006005 -0.014764
310 2 7.477831 7.013574 0.471057
311 2 7.021326 7.515458 0.487297
312 2 7.501979 7.511634 -0.007696
313 1 7.981160 6.994401 -0.015859
314 2 8.514399 7.012830 0.501218
315 2 7.987949 7.507346 0.471330
316 2 8.509174 7.503481 -0.009526
317 1 8.997482 7.011460 -0.033644
318 2 9.516175 6.982001 0.498393
319 2 9.017383 7.483821 0.487743
320 2 9.518471 7.494298 -0.014494
321 1 -0.010690 8.004057 -0.026305
322 2 0.508900 8.009639 0.508805
323 2 -0.002792 8.480457 0.496447
324 2 0.525331 8.506284 -0.019912
325 1 0.985021 7.978303 -0.031650
326 2 1.488147 8.031983 0.494533
327 2 1.035793 8.508760 0.473986
328 2 1.498541 8.500101 -0.013404
329 1 2.000719 8.000661 -0.038286
330 2 2.507638 8.005160 0.513832
331 2 2.030052 8.490629 0.493931
332 2 2.505047 8.493539 -0.000325
333 1 2.988602 8.012669 -0.022162
334 2 3.496284 8.007938 0.494040
335 2 3.015085 8.475167 0.482428
336 2 3.507276 8.492588 0.005021
337 1 3.992526 7.986694 -0.018689
338 2 4.530832 7.999835 0.489465
339 2 4.042913 8.468746 0.502454
340 2 4.524078 8.503057 0.004029
341 1 4.999090 8.022139 -0.013013
342 2 5.483448 7.998734 0.482048
343 2 5.022091 8.485436 0.483463
344 2 5.530569 8.494797 -0.004454
345 1 6.016652 8.000935 -0.012949
346 2 6.510863 7.988422 0.509309
347 2 6.011239 8.495711 0.496842
348 2 6.510791 8.518573 -0.016510
349 1 6.998375 8.012790 -0.024369
350 2 7.469087 8.035723 0.487452
351 2 7.005268 8.496893 0.478124
352 2 7.519926 8.505459 -0.004774
353 1 7.979139 7.993936 -0.030736
354 2 8.539160 8.000606 0.480183
355 2 8.010100 8.499596 0.496838
356 2 8.513081 8.503521 -0.006249
357 1 8.994785 7.999522 -0.040576
358 2 9.520009 7.989953 0.500346
359 2 9.012222 8.468622 0.473710
360 2 9.525726 8.503183 -0.013212
361 1 -0.012231 8.996101 -0.019378
362 2 0.509154 9.000338 0.497407
363 2 0.007504 9.482639 0.490819
364 2 0.515105 9.499736 -0.012992
365 1 0.976196 8.984218 -0.019362
366 2 1.513348 9.003931 0.504680
367 2 1.028932 9.507891 0.484627
368 2 1.502035 9.507220 0.004633
369 1 2.025787 9.014005 -0.066692
370 2 2.503578 8.998823 0.506244
371 2 1.995209 9.494113 0.496098
372 2 2.527279 9.484875 0.001432
373 1 2.993104 8.994046 -0.025713
374 2 3.493967 9.001362 0.509358
375 2 3.021322 9.495957 0.485644
376 2 3.530912 9.477561 -0.007222
377 1 3.982592 8.971653 -0.038327
378 2 4.504768 8.983524 0.496568
379 2 4.045242 9.484906 0.495549
380 2 4.518764 9.488310 -0.003723
381 1 4.986832 9.028714 -0.015719
382 2 5.493476 9.000763 0.487744
383 2 5.009604 9.494107 0.469223
384 2 5.529121 9.484810 0.004331
385 1 6.014040 9.009108 -0.015760
386 2 6.512257 9.024889 0.503149
387 2 6.001921 9.479084 0.493412
388 2 6.503677 9.510309 -0.009365
389 1 7.001596 8.977705 -0.004085
390 2 7.473927 9.007855 0.485223
391 2 6.990056 9.492785 0.496112
392 2 7.517895 9.520389 -0.001941
393 1 7.971787 9.019621 -0.029838
394 2 8.514347 8.997454 0.510426
395 2 7.997934 9.506911 0.484268
396 2 8.507216 9.508452 0.004441
397 1 8.980654 9.001204 -0.034774
398 2 9.509279 8.984995 0.468844
399 2 9.025455 9.484483 0.495421
400 2 9.503763 9.523165 -0.006255
401 1 -0.007311 -0.015978 0.958435
402 2 0.507602 0.006589 1.493587
403 2 -0.009939 0.504650 1.489130
404 2 0.515708 0.492800 1.001821
405 1 0.976231 -0.032483 0.983294
406 2 1.482977 0.005685 1.505928
407 2 1.010136 0.504322 1.488008
408 2 1.490912 0.478503 0.994367
409 1 2.002495 0.013908 0.956325
410 2 2.503443 -0.002154 1.510102
411 2 2.010644 0.487370 1.497155
412 2 2.510400 0.492802 0.982124
413 1 2.991987 -0.018982 0.953638
414 2 3.484062 -0.018855 1.515728
415 2 3.011768 0.506951 1.478417
416 2 3.527355 0.504529 0.991504
417 1 3.968695 -0.014440 0.974395
418 2 4.516498 -0.007591 1.491812
419 2 4.033520 0.488890 1.477792
420 2 4.537280 0.493231 0.995973
421 1 4.980693 0.002759 1.010956
422 2 5.487986 0.004763 1.485016
423 2 4.986979 0.492583 1.465560
424 2 5.528790 0.491587 0.993808
425 1 6.004964 -0.014057 0.995385
426 2 6.514507 0.014188 1.510724
427 2 5.989047 0.491266 1.492496
428 2 6.501441 0.507496 0.987241
429 1 7.004471 0.004526 0.978839
430 2 7.488573 0.008822 1.479056
431 2 6.994652 0.502909 1.498156
432 2 7.506079 0.531565 0.996353
433 1 7.986358 -0.000262 0.993177
434 2 8.522285 -0.014075 1.502421
435 2 7.992690 0.486976 1.480096
436 2 8.507703 0.513105 0.988110
437 1 9.006622 -0.008786 0.942325
438 2 9.522717 -0.003170 1.487611
439 2 8.999750 0.466141 1.492910
440 2 9.529052 0.506325 0.977700
441 1 -0.015850 1.016435 0.990172
442 2 0.486305 0.987101 1.515124
443 2 0.015179 1.488195 1.479273
444 2 0.510449 1.489355 0.992836
445 1 0.973843 1.016977 0.987425
446 2 1.493112 1.010116 1.466792
447 2 1.027683 1.520438 1.511178
448 2 1.509140 1.497696 0.980479
449 1 2.028365 1.006275 0.942437
450 2 2.515287 1.022321 1.481801
451 2 2.022982 1.489269 1.492329
452 2 2.538298 1.498811 1.019853
453 1 2.987292 1.008185 0.989975
454 2 3.517382 0.973803 1.515317
455 2 3.035921 1.450414 1.484654
456 2 3.495698 1.496994 1.008668
457 1 3.993795 0.989413 0.972652
458 2 4.520735 1.005682 1.488620
459 2 4.038992 1.512299 1.483352
460 2 4.533888 1.494148 0.963480
461 1 4.986305 1.030094 0.980621
462 2 5.490211 0.995505 1.475530
463 2 5.005411 1.507303 1.477079
464 2 5.524395 1.476270 1.015607
465 1 6.012051 0.998879 0.991279
466 2 6.494511 1.004220 1.496665
467 2 6.018447 1.510349 1.522951
468 2 6.506259 1.498831 0.988239
469 1 7.005302 0.991069 1.003336
470 2 7.467315 1.017731 1.480220
471 2 7.043479 1.481466 1.526833
472 2 7.512210 1.496317 0.981402
473 1 7.973669 0.989752 1.005905
474 2 8.514835 0.982691 1.483780
475 2 8.001314 1.477660 1.486984
476 2 8.529174 1.530258 0.978017
477 1 8.962871 0.997826 0.963155
478 2 9.525930 1.004519 1.494005
479 2 8.998894 1.464096 1.483245
480 2 9.548900 1.492724 0.972223
481 1 0.005403 2.007258 0.964361
482 2 0.503575 1.997333 1.484732
483 2 0.009674 2.511184 1.476923
484 2 0.534556 2.489931 0.986241
485 1 0.980979 1.961992 0.991388
486 2 1.467467 2.018213 1.509998
487 2 1.006660 2.502003 1.500744
488 2 1.483900 2.480989 0.995699
489 1 1.998913 2.004872 0.951845
490 2 2.512462 2.001836 1.518688
491 2 2.004052 2.491109 1.506713
492 2 2.518176 2.508042 1.023667
493 1 3.012330 1.990055 0.959867
494 2 3.483783 1.999816 1.508392
495 2 2.985032 2.471927 1.486655
496 2 3.489217 2.495846 0.992701
497 1 3.987607 2.011131 0.995498
498 2 4.484259 1.997598 1.473983
499 2 4.041242 2.493686 1.503182
500 2 4.512996 2.497956 0.986641
501 1 4.981619 1.999552 0.989946
502 2 5.490435 2.017415 1.496777
503 2 4.999301 2.492397 1.493891
504 2 5.520225 2.506951 0.988626
505 1 6.040042 1.998823 0.997096
506 2 6.506704 1.981881 1.488401
507 2 5.984317 2.484787 1.479372
508 2 6.514821 2.474884 0.972137
509 1 6.994419 1.983958 0.975334
510 2 7.489386 2.035966 1.495159
511 2 7.016908 2.496446 1.529149
512 2 7.500064 2.501586 0.992359
513 1 7.959749 1.975767 0.976574
514 2 8.513064 1.971263 1.494706
515 2 8.027405 2.470338 1.477345
516 2 8.527861 2.511305 0.992760
517 1 8.984795 2.004628 0.965116
518 2 9.520590 2.006895 1.469188
519 2 9.019199 2.466881 1.489876
520 2 9.542560 2.498118 1.006352
521 1 0.008260 2.997689 0.959502
522 2 0.491978 2.999407 1.516566
523 2 0.010807 3.507270 1.496113
524 2 0.526020 3.486235 1.019756
525 1 0.979902 2.986211 0.960453
526 2 1.475010 3.016377 1.517114
527 2 1.021388 3.481635 1.496568
528 2 1.511337 3.503837 0.986060
529 1 2.022155 3.015002 0.973670
530 2 2.500780 3.022047 1.484996
531 2 2.020016 3.507321 1.504313
532 2 2.512561 3.486937 1.006990
533 1 3.017292 2.991773 0.961713
534 2 3.494063 2.994580 1.494960
535 2 3.007243 3.485473 1.486321
536 2 3.523008 3.499239 0.977958
537 1 4.000584 3.006129 1.015598
538 2 4.520296 2.972503 1.501509
539 2 4.018854 3.495106 1.500809
540 2 4.536725 3.490563 0.994875
541 1 4.985858 3.007520 1.006686
542 2 5.505197 3.012830 1.478255
543 2 5.019299 3.480661 1.447663
544 2 5.539752 3.487746 1.004178
545 1 6.026083 3.025599 0.972714
546 2 6.501737 2.987064 1.511260
547 2 6.001245 3.494156 1.461805
548 2 6.513346 3.519402 0.972286
549 1 6.991507 2.989902 0.981164
550 2 7.483212 3.018755 1.506524
551 2 6.976263 3.498152 1.508945
552 2 7.525828 3.513076 0.978081
553 1 7.957021 3.019570 1.016692
554 2 8.484816 3.017692 1.499220
555 2 8.013377 3.490526 1.474519
556 2 8.523843 3.520967 0.990222
557 1 8.982815 3.009639 0.964315
558 2 9.504856 2.997285 1.506807
559 2 8.998620 3.453885 1.491867
560 2 9.504613 3.505112 1.007864
561 1 -0.019981 4.008480 1.000964
562 2 0.480205 3.981421 1.490045
563 2 0.024535 4.487755 1.479880
564 2 0.504867 4.487592 1.016695
565 1 0.975149 3.997567 0.962029
566 2 1.479137 4.005831 1.501412
567 2 1.024813 4.519959 1.476930
568 2 1.507408 4.506561 0.976749
569 1 2.003368 4.028018 0.933611
570 2 2.522083 4.004468 1.480358
571 2 2.002026 4.482815 1.470718
572 2 2.518564 4.493180 1.003209
573 1 3.030961 3.948593 0.974907
574 2 3.482078 3.989469 1.501344
575 2 2.994122 4.472095 1.472307
576 2 3.513699 4.509678 1.006505
577 1 3.978447 3.985449 0.972526
578 2 4.532411 3.995866 1.503379
579 2 4.028675 4.487194 1.471631
580 2 4.498507 4.486012 1.010202
581 1 4.982254 4.020865 0.992531
582 2 5.511643 4.021907 1.498449
583 2 5.017641 4.517121 1.465641
584 2 5.519593 4.498571 1.002278
585 1 6.020030 3.989047 0.986875
586 2 6.495386 4.011269 1.522996
587 2 5.960446 4.460786 1.497884
588 2 6.509872 4.507137 0.994336
589 1 7.005501 3.993930 1.010786
590 2 7.473171 4.014016 1.494072
591 2 7.013548 4.490378 1.508399
592 2 7.476083 4.511411 0.988611
593 1 7.976401 4.001347 0.997072
594 2 8.523586 3.988072 1.501738
595 2 8.005540 4.513133 1.502722
596 2 8.477764 4.514618 0.982020
597 1 9.002916 3.991056 0.958836
598 2 9.500800 4.009340 1.494166
599 2 9.017832 4.474123 1.480113
600 2 9.515028 4.502356 1.001460
601 1 0.007965 5.007210 0.981667
602 2 0.500034 4.981566 1.503884
603 2 0.019680 5.471075 1.491366
604 2 0.512866 5.495274 1.004971
605 1 0.967145 4.999621 0.975356
606 2 1.493212 5.006701 1.509873
607 2 1.018585 5.535262 1.486621
608 2 1.499391 5.496830 0.995305
609 1 2.023792 5.009163 0.962379
610 2 2.525573 4.996442 1.499186
611 2 2.004621 5.497262 1.482972
612 2 2.501841 5.498688 1.005697
613 1 2.980588 4.978756 0.966578
614 2 3.494038 4.985996 1.500336
615 2 3.006190 5.507255 1.497405
616 2 3.516523 5.473154 0.997495
617 1 3.995469 4.976722 0.999266
618 2 4.507518 4.995202 1.490482
619 2 3.996791 5.491340 1.503477
620 2 4.537768 5.504597 0.985751
621 1 5.013016 5.007660 1.000510
622 2 5.492032 5.007220 1.482828
623 2 5.029427 5.465954 1.499933
624 2 5.539030 5.479595 1.014378
625 1 6.026471 4.995596 0.963282
626 2 6.510443 5.007230 1.497531
627 2 6.002244 5.508606 1.487137
628 2 6.487927 5.514590 0.984660
629 1 6.982483 5.010085 0.982050
630 2 7.488990 5.015376 1.511640
631 2 6.992926 5.492632 1.496095
632 2 7.525440 5.501938 1.009047
633 1 7.992986 5.002305 0.972261
634 2 8.510932 4.972547 1.493435
635 2 7.987337 5.528996 1.483975
636 2 8.518696 5.525824 0.974759
637 1 8.992907 5.007708 0.953428
638 2 9.510058 4.995891 1.477964
639 2 9.040260 5.468161 1.474363
640 2 9.534571 5.488768 0.980090
641 1 -0.006654 6.008077 1.006080
642 2 0.510717 5.999587 1.478765
643 2 0.018685 6.478818 1.476345
644 2 0.491767 6.489742 0.989172
645 1 0.988705 5.978178 0.992251
646 2 1.470362 6.000188 1.510780
647 2 0.979511 6.496659 1.478632
648 2 1.508193 6.472750 0.995352
649 1 2.025860 6.012591 0.976888
650 2 2.518620 5.997740 1.507026
651 2 2.023851 6.487329 1.469647
652 2 2.522555 6.485468 0.979652
653 1 2.979165 5.969331 0.980850
654 2 3.492234 6.004768 1.500217
655 2 3.028289 6.500551 1.479398
656 2 3.505397 6.501791 1.025411
657 1 3.978111 5.992665 0.981636
658 2 4.529570 5.997841 1.495473
659 2 4.032730 6.500747 1.506430
660 2 4.537467 6.490931 0.990578
661 1 4.995769 6.031570 0.993353
662 2 5.515870 6.005219 1.457879
663 2 5.024332 6.484182 1.473478
664 2 5.517443 6.498069 1.007590
665 1 6.010088 6.025021 0.992762
666 2 6.512856 6.012277 1.493937
667 2 6.012036 6.487183 1.497163
668 2 6.510457 6.517864 0.998538
669 1 6.988443 5.996141 1.001140
670 2 7.484299 5.999746 1.497465
671 2 6.994221 6.489602 1.514824
672 2 7.499538 6.474326 1.002238
673 1 7.971065 5.984064 1.002085
674 2 8.537170 5.994270 1.493615
675 2 8.001132 6.473809 1.495278
676 2 8.522529 6.503225 0.976910
677 1 9.010473 5.976099 0.991676
678 2 9.477983 5.976410 1.497359
679 2 9.011070 6.454583 1.482093
680 2 9.527661 6.516682 0.964978
681 1 0.008269 7.004245 0.992807
682 2 0.512292 6.985617 1.488354
683 2 -0.007406 7.473466 1.488262
684 2 0.513607 7.495785 0.993266
685 1 0.988237 6.989038 1.000734
686 2 1.492092 7.014386 1.491046
687 2 1.033086 7.516783 1.496799
688 2 1.517552 7.519320 0.991848
689 1 2.017887 7.030984 0.943807
690 2 2.488893 7.010784 1.515690
691 2 1.996537 7.472696 1.462124
692 2 2.509999 7.498216 1.001028
693 1 2.999410 6.975891 0.977615
694 2 3.494083 6.999428 1.495798
695 2 3.025326 7.500966 1.465925
696 2 3.501649 7.480241 0.998836
697 1 3.980389 6.981722 0.978287
698 2 4.513274 7.005973 1.484517
699 2 4.025890 7.467850 1.500894
700 2 4.528017 7.485188 1.019061
701 1 4.967073 7.032183 1.007360
702 2 5.492314 7.001211 1.471899
703 2 4.998110 7.490608 1.447266
704 2 5.525555 7.478972 0.993639
705 1 6.030791 7.028204 0.981613
706 2 6.535193 7.012180 1.505004
707 2 5.996356 7.489136 1.482200
708 2 6.541336 7.491821 1.000705
709 1 6.998463 6.999306 0.989712
710 2 7.488454 7.016991 1.459284
711 2 7.002551 7.520955 1.489067
712 2 7.476257 7.504016 0.981248
713 1 7.986208 6.982244 0.999426
714 2 8.509742 7.002017 1.501650
715 2 7.996541 7.482062 1.470156
716 2 8.502307 7.513759 0.989410
717 1 8.994823 7.015526 0.960358
718 2 9.501211 6.984040 1.502236
719 2 9.019285 7.490627 1.496736
720 2 9.514753 7.511579 0.988659
721 1 0.010507 8.001978 0.949832
722 2 0.507170 8.013007 1.508893
723 2 0.005491 8.486892 1.489649
724 2 0.537468 8.522725 0.985969
725 1 0.987079 7.995315 0.962507
726 2 1.485197 8.047088 1.481363
727 2 1.034895 8.499042 1.459021
728 2 1.476703 8.497491 0.977271
729 1 2.029163 8.014772 0.962328
730 2 2.488014 8.006846 1.495318
731 2 2.034810 8.495675 1.490484
732 2 2.509595 8.493108 1.008123
733 1 2.993118 8.009163 0.976731
734 2 3.504930 8.008150 1.501568
735 2 3.025891 8.486012 1.485121
736 2 3.506205 8.476113 1.001314
737 1 3.998968 7.989601 0.970723
738 2 4.532332 7.990422 1.479331
739 2 4.037058 8.475401 1.505521
740 2 4.508953 8.493823 0.993375
741 1 5.001553 8.015287 0.986790
742 2 5.491658 8.009861 1.487153
743 2 5.023658 8.470844 1.501969
744 2 5.537061 8.486567 0.990515
745 1 6.024091 8.014018 0.989607
746 2 6.507073 7.975802 1.507726
747 2 6.029338 8.504054 1.510352
748 2 6.513134 8.512234 0.990455
749 1 7.001184 8.011081 0.987530
750 2 7.473142 8.029999 1.507407
751 2 7.001295 8.500420 1.481719
752 2 7.492006 8.513560 0.999694
753 1 7.974059 7.988557 0.984528
754 2 8.565018 8.004173 1.472762
755 2 8.013871 8.499389 1.498826
756 2 8.519967 8.496679 1.010701
757 1 8.999295 7.997611 0.971448
758 2 9.517607 7.973682 1.515454
759 2 9.019745 8.474451 1.485089
760 2 9.529779 8.495746 0.985211
761 1 -0.006899 9.003920 0.962169
762 2 0.521940 9.021357 1.496377
763 2 0.008324 9.499405 1.496468
764 2 0.507887 9.502507 0.997316
765 1 0.993955 8.984494 0.966575
766 2 1.506578 9.002097 1.495159
767 2 1.024181 9.519874 1.483387
768 2 1.502801 9.523119 1.006669
769 1 2.021457 9.005644 0.938590
770 2 2.517003 8.999309 1.509154
771 2 2.003230 9.479499 1.484403
772 2 2.519128 9.489837 0.984307
773 1 2.975562 9.000086 0.969095
774 2 3.498321 8.995142 1.492095
775 2 3.023555 9.498051 1.489695
776 2 3.529962 9.488616 0.999251
777 1 3.996439 8.971858 0.957709
778 2 4.496774 8.982342 1.508572
779 2 4.067143 9.490839 1.477518
780 2 4.518327 9.478179 1.004858
781 1 5.005789 9.040376 0.987440
782 2 5.479666 8.995495 1.481471
783 2 5.013621 9.493206 1.450851
784 2 5.521744 9.475648 0.980402
785 1 6.004533 9.028007 1.001869
786 2 6.507138 9.018327 1.503882
787 2 6.017170 9.489523 1.501611
788 2 6.515898 9.518871 0.994291
789 1 7.000965 8.985607 1.000775
790 2 7.491469 9.011132 1.493760
791 2 6.997120 9.488253 1.513741
792 2 7.521486 9.518288 1.002846
793 1 7.961270 9.026543 0.992721
794 2 8.507118 9.005218 1.496767
795 2 7.998418 9.526393 1.482645
796 2 8.515176 9.495880 1.001472
797 1 8.986503 9.000791 0.970600
798 2 9.495262 8.996408 1.452826
799 2 9.017704 9.476523 1.502247
800 2 9.509125 9.518238 0.996992
801 1 -0.007841 0.022219 1.970004
802 2 0.487548 0.014724 2.493198
803 2 0.005446 0.496013 2.483478
804 2 0.512997 0.509984 1.988803
805 1 0.997741 -0.020079 1.975217
806 2 1.505484 0.009561 2.514859
807 2 0.999576 0.503628 2.501551
808 2 1.508467 0.503188 1.972674
809 1 2.008611 0.002520 1.929904
810 2 2.513699 -0.001616 2.499271
811 2 2.006742 0.475984 2.482702
812 2 2.527104 0.486128 2.004113
813 1 2.993611 0.001570 1.953681
814 2 3.478012 0.004938 2.491369
815 2 3.010794 0.479353 2.499147
816 2 3.516320 0.510914 1.991345
817 1 3.990307 -0.002768 1.973459
818 2 4.494896 -0.011682 2.487056
819 2 4.028276 0.492019 2.504142
820 2 4.529069 0.495023 2.002030
821 1 4.970660 0.006193 2.008431
822 2 5.509537 -0.000845 2.488869
823 2 5.008761 0.482475 2.473760
824 2 5.542831 0.496676 2.017010
825 1 6.028129 0.010923 2.001124
826 2 6.505522 -0.019194 2.491546
827 2 5.984439 0.509587 2.496756
828 2 6.528218 0.506923 1.981474
829 1 6.991383 -0.003995 1.980558
830 2 7.467185 0.019753 2.486383
831 2 7.004313 0.467537 2.499667
832 2 7.501909 0.524359 1.976636
833 1 7.997268 -0.009706 1.997992
834 2 8.515760 0.001440 2.500056
835 2 8.005988 0.506274 2.501056
836 2 8.520595 0.524792 1.990138
837 1 8.981709 0.026935 1.955650
838 2 9.490973 -0.014073 2.505573
839 2 9.003883 0.489403 2.483355
840 2 9.530257 0.510941 2.004096
841 1 -0.022053 1.021951 1.982231
842 2 0.501979 0.981473 2.514223
843 2 -0.006812 1.475623 2.470626
844 2 0.545534 1.500822 2.021781
845 1 0.977414 0.998969 1.982599
846 2 1.470062 1.010117 2.476224
847 2 1.030407 1.506516 2.489448
848 2 1.508891 1.503417 1.982467
849 1 2.037259 1.033988 1.936721
850 2 2.509760 1.005253 2.492218
851 2 2.014785 1.494835 2.506297
852 2 2.536556 1.509324 2.010274
853 1 2.998011 0.989886 1.994610
854 2 3.492749 0.996199 2.526503
855 2 3.011019 1.476920 2.484686
856 2 3.509525 1.499556 2.001254
857 1 3.999798 0.994002 1.965379
858 2 4.508407 0.987056 2.498971
859 2 4.033381 1.497089 2.496734
860 2 4.534659 1.492837 1.993038
861 1 4.993393 1.043360 1.966845
862 2 5.508300 0.981531 2.481724
863 2 4.988747 1.487545 2.471256
864 2 5.529842 1.479844 2.026559
865 1 6.014807 0.988053 1.978894
866 2 6.481967 1.010626 2.482099
867 2 6.017609 1.503793 2.506700
868 2 6.505998 1.488917 1.966963
869 1 7.014048 0.994897 1.986958
870 2 7.469077 1.000765 2.480651
871 2 7.026558 1.500646 2.505499
872 2 7.504227 1.505264 1.987614
873 1 7.984671 0.989238 2.007646
874 2 8.487813 0.980283 2.474980
875 2 8.012251 1.503310 2.483538
876 2 8.508602 1.516844 1.982776
877 1 8.980005 1.006683 1.960607
878 2 9.531707 0.984217 2.502442
879 2 9.008074 1.473079 2.476593
880 2 9.530778 1.515922 1.973005
881 1 0.002651 1.992475 1.964453
882 2 0.507796 1.997220 2.501509
883 2 0.015440 2.506368 2.495861
884 2 0.510322 2.488665 2.000383
885 1 0.967215 1.965330 1.969716
886 2 1.469678 2.005575 2.514698
887 2 1.037162 2.485230 2.492848
888 2 1.498099 2.496137 1.982556
889 1 2.022523 2.001450 1.955876
890 2 2.513137 2.019897 2.491119
891 2 2.013608 2.487739 2.507429
892 2 2.527779 2.519046 2.007591
893 1 3.015064 1.968903 1.961393
894 2 3.479001 1.990484 2.509887
895 2 3.011915 2.469579 2.478957
896 2 3.518000 2.506383 1.989358
897 1 3.992710 1.992821 1.995867
898 2 4.499087 1.981259 2.480076
899 2 4.023824 2.489467 2.492289
900 2 4.551403 2.499644 1.994264
901 1 4.978384 2.005830 2.002657