ITEM: TIMESTEP
0
ITEM: NUMBER OF ATOMS
10000
ITEM: BOX BOUNDS xy xz yz pp pp pp
0.0000000000000000e+00 3.9651339999999998e+01 0.0000000000000000e+00
0.0000000000000000e+00 3.9651339999999998e+01 0.0000000000000000e+00
0.0000000000000000e+00 3.9651339999999998e+01 0.0000000000000000e+00
ITEM: ATOMS id type radius x y z c_PerParticleStress[4]
1 1 1 29.1815 36.3615 9.20298 -0.00952775
2 1 1 3.77489 9.05314 14.9186 -0.00624028
3 2 1.25 10.371 36.5084 0.919859 -0.0479839
4 1 1 22.9243 5.78289 34.5584 -0.00356253
5 2 1.25 6.40456 19.1832 39.2752 -0.00312716
6 1 1 13.0879 0.754639 8.27481 0.0269883
7 1 1 15.5998 14.3457 10.0243 -0.000124283
8 1 1 37.0186 27.4476 38.9133 -0.00778432
9 1 1 17.5104 37.6391 1.5987 0.0314251
10 1 1 24.0135 32.0156 9.47595 0.000470474
11 2 1.25 36.3927 29.477 33.4358 -0.0136358
12 2 1.25 22.9651 31.0982 12.8931 -0.0101055
13 1 1 9.2268 13.1841 21.6945 0.00980071
14 1 1 31.7149 11.8933 15.7742 -0.0131833
15 1 1 32.963 24.4417 38.5846 0.0166646
16 1 1 8.34486 33.0476 27.1128 -0.0370437
17 1 1 9.66376 17.6154 16.4463 -0.00208773
18 1 1 24.5622 31.1838 5.88552 0.00663664
19 1 1 32.4417 35.2996 15.4047 -0.00289057
20 1 1 18.1943 22.1701 27.9977 -0.0311002
21 1 1 29.3489 29.7454 15.3206 0.0150283
22 1 1 17.4575 37.9599 23.022 0.00315395
23 1 1 31.8685 10.9739 24.1928 0.0196923
24 1 1 22.0333 38.2089 4.08086 -0.00115152
25 1 1 20.1161 19.2431 1.94009 0.00673041
26 1 1 36.2863 35.1116 17.6212 -0.0512395
27 1 1 30.7614 5.62213 23.6911 0.00131561
28 1 1 10.9035 18.7243 33.5386 -0.0126635
29 2 1.25 7.52926 11.6277 18.2601 0.00912052
30 1 1 14.1616 32.0515 39.4321 0.00668257
31 1 1 5.9858 9.6993 27.2618 -0.00134163
32 1 1 15.2771 36.5206 38.7823 0.00224551
33 1 1 24.7748 33.4559 15.5506 0.0041535
34 1 1 25.0464 0.1552 22.0426 0.00592827
35 1 1 36.7505 29.0765 19.7023 0.0183762
36 1 1 25.611 35.7615 8.96741 -0.00439232
37 1 1 15.1509 38.5169 16.0349 0.00656424
38 1 1 26.0859 34.6527 0.471767 -0.0394007
39 1 1 25.2022 4.80774 1.73682 -0.00162509
40 2 1.25 23.1177 22.0149 38.6842 -0.0107293
41 1 1 30.1312 25.641 20.4858 0.0137889
42 1 1 10.1269 39.4517 22.0882 0.000961559
43 1 1 1.79064 28.0472 22.2079 -0.0145945
44 1 1 2.74413 35.6727 13.3896 0.0112545
45 1 1 8.80917 3.9691 11.4451 0.00718638
46 2 1.25 9.22411 25.9571 2.61297 0.00144427
47 1 1 10.249 11.6618 33.9026 -0.02174
48 1 1 16.518 30.3841 23.7864 0.0127446
49 1 1 30.9211 4.64221 39.2755 -0.0155626
50 1 1 33.1298 1.67201 18.292 -0.000771615
51 1 1 12.6364 25.0908 9.50411 -0.00991699
52 1 1 22.5802 24.112 24.6518 0.000156867
53 1 1 16.1588 0.701273 20.1043 0.0239338
54 1 1 16.2602 3.36875 17.9743 -0.0280312
55 1 1 17.5677 20.9802 31.4767 0.016641
56 1 1 27.8642 35.3157 1.71012 0.0432635
57 1 1 8.45875 18.3224 38.5417 -0.00556048
58 1 1 31.8741 16.6275 12.7357 0.0115233
59 1 1 2.85734 29.0099 18.6347 -0.0238569
60 1 1 7.52859 16.8433 8.49095 0.0412482
61 1 1 29.2283 13.916 36.9706 0.0171425
62 1 1 2.61694 32.9557 23.7392 -0.0232977
63 2 1.25 21.2095 25.9943 28.4222 0.0202485
64 1 1 3.36784 36.2538 39.4241 0.0161337
65 2 1.25 11.0784 6.56692 35.8953 -0.0077204
66 1 1 4.5815 22.0073 25.7648 -0.0107065
67 1 1 25.5851 35.2127 2.20723 0.0318364
68 1 1 33.4482 21.4235 27.7249 0.0120074
69 1 1 9.33046 22.9236 27.6604 0.000118987
70 1 1 38.2729 18.0782 4.97985 0.0109095
71 2 1.25 2.87478 24.9367 32.8662 -0.0013902
72 2 1.25 27.6769 12.7321 37.998 -0.00954733
73 1 1 22.3025 37.3012 2.4775 -0.0305965
74 1 1 8.30584 31.3706 35.4756 0.0347964
75 1 1 30.0204 12.063 6.26321 -0.00601664
76 1 1 33.321 32.0385 10.7147 -0.0235156
77 2 1.25 9.49426 13.3705 32.7265 -0.0243605
78 1 1 32.7162 23.4915 24.0494 0.00858812
79 1 1 12.145 28.9154 30.725 0.0106246
80 1 1 17.6696 17.9521 18.2825 0.016968
81 1 1 10.1208 26.0658 35.0613 0.00469671
82 2 1.25 35.9069 29.287 10.7577 -0.0138915
83 1 1 27.6556 4.00962 4.35266 -0.0120863
84 1 1 6.25496 5.47821 21.675 -0.0101177
85 1 1 3.94467 32.2266 28.8289 -0.00570116
86 1 1 35.7325 19.8709 25.6252 -0.0232459
87 1 1 36.2031 21.43 9.78181 -0.00842605
88 2 1.25 38.932 1.79794 13.3164 -0.0132666
89 1 1 38.4918 14.9928 12.6317 0.00535865
90 1 1 4.38379 36.7653 4.84283 -0.0114468
91 1 1 12.9526 35.5737 18.3007 0.00325975
92 2 1.25 23.7182 22.8266 27.6244 0.00256846
93 1 1 0.325961 20.8779 1.31714 0.000479593
94 1 1 32.2858 14.3868 33.0583 -0.0150142
95 1 1 9.9124 23.0471 38.3218 0.00250013
96 2 1.25 0.603649 1.42186 2.61617 -0.0158603
97 1 1 27.5757 23.9903 4.22474 -0.00899055
98 1 1 32.5616 23.8769 3.26622 0.0260689
99 1 1 2.50214 3.95373 30.7906 -0.0291898
100 1 1 2.89831 9.1852 10.2204 -0.0375791
101 2 1.25 4.60408 32.2702 26.5892 0.0662773
102 1 1 13.3943 26.3964 5.40286 -0.0412936
103 1 1 5.96616 1.48091 36.611 -0.0104381
104 1 1 38.4135 5.04781 18.8831 -0.0446456
105 1 1 25.9689 11.0195 29.8145 0.0158275
106 1 1 22.3321 18.0892 11.4309 -0.00938464
107 1 1 28.9345 36.406 29.4316 -0.026135
108 1 1 15.7993 36.7987 9.7439 -0.0167915
109 1 1 20.2784 38.3984 10.719 -0.0171849
110 1 1 11.5648 36.4149 2.76449 0.00994297
111 1 1 11.419 22.4609 8.25129 -0.00891874
112 1 1 25.9384 32.5708 19.9092 0.0322462
113 1 1 25.8589 32.474 9.06528 -0.0180635
114 1 1 24.0284 4.53545 20.5186 0.0174563
115 1 1 33.079 36.1776 18.9337 -0.000811765
116 1 1 19.2925 38.6469 8.82977 0.00333239
117 1 1 2.23781 12.1345 16.2651 0.00543296
118 2 1.25 18.0153 12.909 26.9876 -0.0213515
119 1 1 3.98329 15.4419 10.8368 0.0380826
120 1 1 12.7528 3.94653 22.8116 -0.0325472
121 1 1 10.7078 5.78255 0.492295 -0.0364014
122 1 1 10.315 20.8524 34.5059 -0.01414
123 2 1.25 1.79847 36.203 6.17143 0.044763
124 1 1 32.3253 31.6995 37.4477 0.00210701
125 1 1 4.86697 20.6845 17.1107 -0.0012639
126 1 1 6.66659 24.2373 24.1941 0.0173564
127 1 1 8.30287 20.0416 39.3515 -0.0135885
128 1 1 18.6161 28.297 16.693 -0.00545475
129 1 1 0.983801 12.1234 31.5523 0.017012
130 1 1 13.2769 2.19395 19.2135 0.0449388
131 1 1 14.2535 30.2595 20.8857 0.0344585
132 1 1 31.8913 31.3758 6.83469 -0.0182783
133 1 1 5.9778 32.513 23.5271 0.00165876
134 2 1.25 1.39257 34.5719 22.8407 0.0388371
135 1 1 20.9112 24.294 29.7662 0.00716129
136 1 1 33.3196 14.1381 2.9005 -0.0167138
137 2 1.25 29.1621 12.7219 33.5583 -0.0100883
138 1 1 15.6146 32.6858 6.84271 -0.0291439
139 1 1 3.72643 34.2282 2.13459 0.00802674
140 1 1 28.0284 29.1233 16.6289 -0.00744873
141 1 1 18.1611 4.33964 13.8026 0.0270107
142 1 1 12.3093 34.8221 9.23963 -0.028168
143 1 1 11.0644 17.5929 28.9966 -0.00189405
144 1 1 5.55068 34.1506 2.90513 -0.0111989
145 1 1 18.6372 0.989991 29.6206 -0.00666152
146 1 1 26.5825 8.46341 27.8208 -0.0232056
147 1 1 22.2619 33.776 22.9935 0.000776904
148 1 1 34.4021 17.297 13.8563 0.0226278
149 1 1 19.7681 9.15508 36.9172 -0.00230464
150 2 1.25 18.4087 10.1273 16.8965 0.0328512
151 1 1 28.0677 16.1268 6.77583 0.012059
152 2 1.25 34.2953 24.2791 14.6171 -0.0214494
153 1 1 8.91702 8.45158 20.4061 0.00118969
154 1 1 18.5118 28.1529 2.40172 0.0220989
155 1 1 34.2496 26.9277 4.43594 0.0192804
156 1 1 34.3136 7.05399 23.9066 -0.0014536
157 1 1 22.0771 6.09721 0.354178 0.0351047
158 1 1 30.749 30.6287 16.3662 0.0149545
159 1 1 2.65099 23.2788 6.08593 -0.0176018
160 2 1.25 29.7479 20.7444 9.55175 0.000377188
161 1 1 37.7225 29.7817 35.093 0.0405488
162 2 1.25 2.67188 5.84941 29.8776 -0.00583914
163 2 1.25 26.7375 30.6164 19.872 0.0367824
164 1 1 17.1045 24.4348 34.3464 -0.0438685
165 1 1 27.3372 21.0926 12.2997 0.0270811
166 1 1 27.0235 14.8404 23.247 -0.0169442
167 1 1 34.987 32.6426 35.6984 0.0538107
168 2 1.25 37.2695 33.968 0.393027 0.0340853
169 1 1 39.506 3.92661 9.52233 0.0146554
170 2 1.25 1.20951 16.8656 14.4086 0.00204573
171 1 1 21.2399 36.708 11.0007 0.000198892
172 1 1 14.2535 34.0832 14.047 -0.0110361
173 1 1 5.75593 19.0545 34.2207 0.00474995
174 1 1 16.5902 26.7753 25.122 -0.0268814
175 1 1 16.8543 18.1196 37.8664 0.0150194
176 1 1 2.74781 10.6635 17.4058 -0.0238963
177 1 1 24.2521 35.8093 18.9133 -0.0105285
178 1 1 16.5076 29.3472 18.6838 0.014566
179 1 1 33.2394 17.9876 20.2404 -0.0122772
180 1 1 20.2765 8.6441 3.15111 -0.00568673
181 1 1 1.70245 35.4074 9.29774 -0.0264756
182 1 1 34.0871 27.8505 32.7152 -0.00527116
183 1 1 37.3246 5.78244 15.2481 0.0163585
184 1 1 39.2441 25.2987 35.4877 0.00645053
185 2 1.25 18.5972 37.9489 26.9374 -0.00994292
186 2 1.25 10.1619 20.6761 27.9885 0.0636937
187 1 1 25.2841 25.1853 18.0611 -0.0202364
188 1 1 11.2926 16.3731 1.31688 0.0101082
189 2 1.25 24.018 38.3832 3.25188 -0.0124086
190 1 1 39.4925 35.7413 9.635 0.00590098
191 1 1 0.762302 32.4886 5.69211 0.0459061
192 2 1.25 34.9637 5.02746 13.8658 -0.00908447
193 1 1 24.0272 23.3042 25.519 0.0229516
194 1 1 26.0358 17.3586 5.62659 0.0336871
195 2 1.25 28.9034 9.59167 24.9273 -0.0403802
196 1 1 34.6379 3.0618 37.8745 -0.028243
197 1 1 0.626566 33.2988 31.6308 0.000879982
198 1 1 0.694681 22.3755 37.4943 0.0144025
199 1 1 14.096 32.4825 24.9173 0.0195496
200 1 1 31.2725 30.3629 1.79336 0.0369643
201 1 1 11.7601 26.4538 18.1549 -0.0280928
202 2 1.25 37.7836 30.3195 21.1471 0.0095101
203 1 1 12.1376 10.277 34.3394 0.0124315
204 1 1 18.6554 32.0319 2.75631 -0.0116178
205 1 1 34.8449 1.62491 36.696 -0.0143777
206 1 1 36.3931 21.4555 5.84019 -0.00972023
207 1 1 7.35733 27.3157 31.8011 0.0165097
208 1 1 1.81976 31.1074 37.8118 -0.0258132
209 2 1.25 13.8679 26.4717 12.8447 -0.0346158
210 1 1 8.79898 31.652 29.458 -0.0220652
211 1 1 10.6553 23.6746 16.4155 0.0435105
212 1 1 3.00926 1.93912 19.058 0.00407603
213 1 1 11.5513 12.279 12.2152 -0.0189847
214 1 1 7.10349 16.8057 25.446 0.00491251
215 1 1 6.83431 26.2764 17.496 0.0434955
216 1 1 16.7034 5.98933 6.82405 0.0214356
217 2 1.25 24.4222 11.2521 21.2839 -0.0079203
218 1 1 36.2194 28.1472 26.3645 -0.00180365
219 1 1 37.8915 31.6342 22.8797 0.00278299
220 1 1 37.9765 4.28959 10.5114 0.0107286
221 1 1 38.735 30.3925 19.212 0.022792
222 2 1.25 25.5053 16.5149 15.3282 0.013906
223 1 1 9.08989 14.7384 1.04389 0.00360389
224 1 1 18.7618 11.681 38.8185 0.00601925
225 1 1 21.9562 31.8159 16.2392 0.0314367
226 2 1.25 18.7864 33.1509 38.0016 0.0194353
227 2 1.25 20.3623 36.5808 30.1343 -0.00227754
228 1 1 22.9401 38.2658 32.7342 0.0220447
229 1 1 38.6662 26.1743 15.3395 0.00603239
230 1 1 18.3336 36.2195 0.682584 0.0252064
231 1 1 6.53019 16.7355 20.6102 -0.0183787
232 1 1 1.49078 25.0016 35.9518 0.0119985
233 1 1 4.33383 17.3586 10.8 -0.00180941
234 1 1 39.0811 24.708 9.73715 0.0223819
235 2 1.25 5.77606 22.2549 31.9058 0.0568734
236 1 1 34.1802 32.5434 9.14836 -0.0279828
237 1 1 21.3389 34.6838 5.80484 0.00223948
238 1 1 33.5546 36.0254 9.20274 -0.0230279
239 1 1 4.21995 18.0175 34.7213 -0.00399107
240 1 1 20.1619 15.6085 20.4796 -0.0287121
241 1 1 4.96686 3.98197 34.8185 -0.0191034
242 1 1 23.5045 9.3054 36.484 -0.0235914
243 1 1 2.46359 17.0413 27.0916 0.00105409
244 1 1 13.6441 16.5716 20.1468 0.0417551
245 1 1 34.9771 32.8325 3.1652 0.012235
246 1 1 9.86039 16.0345 35.072 -0.00498262
247 1 1 17.6635 9.93795 22.872 -0.013681
248 1 1 18.3608 34.4407 36.3401 0.0038441
249 2 1.25 30.8716 28.683 28.8334 0.0414751
250 1 1 35.1811 2.91551 14.4919 0.00591739
251 1 1 0.489547 31.4288 19.9811 -0.00235738
252 1 1 14.2191 8.93861 20.3776 0.000408233
253 1 1 12.1978 2.88198 3.08934 -0.00425989
254 1 1 1.89311 16.2902 4.56796 0.0301366
255 1 1 16.8695 36.0311 14.6828 0.00384512
256 1 1 4.39492 23.4966 34.2387 -0.0256467
257 1 1 12.8273 1.78971 6.65331 -0.00220105
258 1 1 3.30498 30.5392 17.7052 -0.0155508
259 1 1 24.8597 29.1954 22.5871 -0.0160662
260 1 1 25.9025 34.4826 26.5854 -0.00671578
261 1 1 35.1626 20.0048 5.47392 0.0100127
262 1 1 5.16758 28.9001 13.432 -0.00060596
263 1 1 26.4668 25.3151 21.2153 0.0300448
264 1 1 26.6442 18.7601 19.1033 -0.0120903
265 1 1 20.5791 36.5503 15.3998 0.01173
266 1 1 4.90814 8.13531 25.929 -0.00815735
267 1 1 34.3524 37.5918 8.39706 0.0108744
268 1 1 30.6971 22.8554 15.4576 -0.00178574
269 2 1.25 20.7813 20.9232 25.8284 -0.0369765
270 1 1 29.6647 12.013 4.3406 0.00464586
271 1 1 33.6029 14.3841 30.0547 0.0154945
272 1 1 7.11093 3.2105 36.7143 0.0100599
273 2 1.25 35.3935 0.522087 33.6746 0.0111504
274 1 1 0.614797 21.6627 39.2432 -0.00234918
275 1 1 20.9106 34.1793 2.35964 0.00605888
276 1 1 0.274299 36.3479 22.6481 0.0313864
277 1 1 17.3335 14.2322 28.5953 -0.0116238
278 1 1 1.43373 15.2705 36.0034 -0.0228667
279 2 1.25 23.0991 18.9332 19.2875 -0.00300414
280 1 1 12.4153 38.9061 38.3698 -0.0234241
281 2 1.25 19.5179 39.071 17.5773 -0.0276602
282 2 1.25 16.5867 8.65199 8.42931 0.0346714
283 1 1 34.8045 28.8741 20.1196 0.0289854
284 1 1 32.9349 20.7753 21.6207 0.00485781
285 1 1 9.2917 22.3047 5.71817 -0.00489025
286 2 1.25 2.27821 26.2795 25.1184 -0.00390719
287 1 1 9.0438 16.4936 25.3869 -0.0370746
288 2 1.25 21.9924 4.59286 7.10099 0.0527703
289 1 1 39.4741 16.4678 18.2405 0.00970417
290 1 1 7.18727 27.1657 0.716522 0.0015668
291 1 1 3.86371 37.879 38.6346 0.0144253
292 1 1 1.93754 19.3153 34.9762 0.000293946
293 1 1 10.0985 32.3609 32.731 -0.0561481
294 2 1.25 24.7714 39.1474 15.9617 0.0472277
295 1 1 35.6995 27.555 14.7839 0.00976907
296 1 1 25.1788 9.80209 22.6488 0.0322452
297 2 1.25 38.4666 33.7131 10.8741 -0.0322477
298 1 1 26.5613 13.046 0.168663 0.0287386
299 1 1 4.0246 10.3766 30.5532 0.00773573
300 2 1.25 3.53056 21.3038 31.8461 0.0118744
301 1 1 29.2924 4.32787 16.9694 -0.01076
302 1 1 14.2893 19.7517 24.535 0.0236925
303 1 1 5.3565 35.751 24.9914 0.00361953
304 1 1 6.1884 22.2809 36.6763 -0.0126244
305 1 1 32.4422 27.6858 19.2678 0.0153399
306 1 1 10.3191 23.4289 9.46642 0.00796034
307 1 1 12.9472 35.5833 35.9428 0.0247967
308 1 1 30.8284 36.9626 8.02131 0.046461
309 1 1 20.3429 24.821 35.3182 7.72008e-05
310 1 1 27.0491 14.5124 28.2228 0.00147684
311 1 1 32.8203 23.6822 5.07656 -0.00772959
312 1 1 36.1767 0.817365 21.2237 0.0111016
313 1 1 4.05554 15.1221 31.8107 0.017809
314 1 1 9.56141 34.9782 29.6907 0.00503915
315 2 1.25 14.6923 9.38831 9.53455 0.0459409
316 1 1 30.0109 2.54411 26.458 0.0126028
317 1 1 24.1696 29.5525 38.8781 -0.00599762
318 2 1.25 14.7515 10.7743 34.5987 -0.00737566
319 1 1 32.4633 18.9371 4.40558 -0.0280157
320 1 1 22.4481 7.68758 20.8013 0.00110984
321 1 1 14.346 11.7521 28.6838 -0.0172158
322 1 1 20.6122 33.8092 9.07376 -0.0183231
323 2 1.25 27.0259 2.26086 31.5904 0.0287186
324 1 1 27.1641 37.9489 1.81648 -0.0110089
325 1 1 36.0074 21.8971 26.3626 0.0156217
326 1 1 13.0591 2.62122 33.0092 -0.00392663
327 1 1 4.41453 14.7012 23.543 0.0477326
328 1 1 39.2908 20.1103 39.4318 -0.0329704
329 1 1 9.1618 17.1886 27.1197 -0.021968
330 1 1 2.00777 31.5766 16.8061 -0.0091848
331 2 1.25 31.7687 14.3011 13.4351 0.00658655
332 1 1 38.3805 28.2445 16.7144 0.0190363
333 1 1 3.46535 29.21 25.6324 -0.00359694
334 1 1 2.41301 4.7784 38.7377 0.00413856
335 1 1 21.5941 0.731994 2.34147 0.020158
336 1 1 6.20398 35.0978 18.685 0.014363
337 1 1 22.6631 19.5246 2.66625 0.00206429
338 1 1 34.7887 10.3679 11.5794 -0.0083902
339 1 1 23.0114 20.3747 14.7032 0.00412211
340 1 1 25.3821 37.484 25.931 0.0213824
341 2 1.25 9.73972 8.72673 16.4768 -0.00820865
342 2 1.25 2.04352 34.4878 25.1431 0.0022557
343 1 1 9.76833 20.4268 3.16957 -0.0264333
344 2 1.25 34.6046 17.208 21.8011 -0.0260982
345 1 1 22.5703 27.9331 15.0578 -0.00272973
346 1 1 3.86783 18.4083 2.36747 -0.0204437
347 1 1 29.2225 0.513261 37.7181 0.00887193
348 1 1 29.5854 37.0965 19.4182 -0.00250347
349 1 1 8.58137 9.50271 31.2814 0.0082374
350 1 1 39.6475 15.2221 28.691 0.00680055
351 1 1 4.97723 22.511 16.7637 -0.0176515
352 2 1.25 28.3534 10.5126 3.35849 0.0386436
353 1 1 16.4141 25.481 6.09116 0.0269757
354 1 1 18.4383 25.6516 34.9018 -0.0471692
355 1 1 12.9211 13.6989 34.7388 -0.00800008
356 1 1 29.1585 9.80584 29.8277 0.00326985
357 2 1.25 10.6269 11.4621 39.3884 -0.0336045
358 1 1 13.8557 17.655 12.031 -0.0194125
359 1 1 13.5658 8.36463 36.789 -0.0119517
360 1 1 34.3594 16.7714 19.4622 0.0454301
361 1 1 21.6028 19.8587 11.6727 -0.00430115
362 1 1 38.8661 7.0798 33.3315 0.0244914
363 1 1 1.20751 13.7592 28.7848 0.00572404
364 1 1 23.7591 6.0656 37.2798 -0.0233756
365 1 1 20.631 9.81693 23.4877 -0.00317491
366 1 1 36.8372 34.8585 19.3591 -0.0150488
367 1 1 18.0557 12.0147 2.0633 0.0137287
368 2 1.25 29.62 5.25588 13.4679 -0.00470682
369 1 1 15.9668 33.68 39.203 0.0152096
370 1 1 33.7583 12.0073 9.18443 -0.011041
371 1 1 19.7899 29.585 8.29741 -0.0359424
372 2 1.25 9.06473 37.6147 22.9325 0.0222797
373 1 1 11.974 38.4588 35.2316 0.00540903
374 2 1.25 7.19388 39.5325 28.2261 0.0186711
375 1 1 34.1982 5.41925 1.03695 0.0274664
376 1 1 24.3394 23.8747 18.9809 -0.0138266
377 1 1 1.1059 27.4519 38.1582 0.0337906
378 1 1 32.9398 5.76151 14.1505 -0.0135328
379 1 1 9.14968 21.4454 24.6058 -0.00124572
380 2 1.25 13.4723 32.5218 31.5276 0.0212895
381 1 1 31.4185 14.3606 2.76571 -0.00404897
382 1 1 27.6397 37.0139 6.82008 0.00342258
383 1 1 4.51447 35.9249 18.4872 0.00737393
384 1 1 33.7081 31.4804 7.58405 0.0133062
385 1 1 9.15015 1.79851 23.2544 -0.00986361
386 1 1 31.5493 20.4813 1.74244 0.0161251
387 1 1 38.3583 19.6969 11.9382 0.00218692
388 1 1 6.65379 25.738 23.0223 -0.00943652
389 1 1 29.8828 7.41842 13.8059 0.0335826
390 1 1 5.89948 34.7022 13.542 -0.0252342
391 1 1 11.2721 1.78824 30.5981 -0.00148887
392 2 1.25 19.3128 21.1694 34.6135 -0.0412582
393 1 1 28.7556 26.3968 8.08314 0.00389602
394 1 1 21.1819 37.8448 23.77 0.019118
395 1 1 31.0801 0.215459 35.6228 0.0305246
396 1 1 8.64411 0.480143 17.9826 -0.0135434
397 1 1 1.13311 19.2293 38.6809 0.000879295
398 1 1 10.7904 15.3766 18.5416 -0.0303768
399 2 1.25 33.8903 31.3314 17.9827 0.00857672
400 1 1 14.6192 37.166 29.7395 -0.0203747
401 1 1 30.6185 17.3168 33.836 -0.0204494
402 2 1.25 15.9335 30.0794 38.2606 0.0302998
403 1 1 20.1607 17.687 8.72748 0.0285211
404 1 1 13.2014 4.02606 15.0082 -0.00512527
405 2 1.25 13.5449 14.1824 32.7494 -0.0221672
406 1 1 21.5666 20.8256 30.4736 0.0127845
407 1 1 6.11844 24.4285 14.7055 0.00387526
408 1 1 13.5767 21.9094 34.0586 0.00272676
409 1 1 8.15324 26.1561 34.957 0.0112013
410 1 1 6.75295 10.5226 20.0205 0.0121521
411 2 1.25 35.0563 19.8495 10.6177 -0.00567462
412 2 1.25 21.2599 23.7067 17.0213 0.0196608
413 1 1 15.0309 3.3672 14.8594 -0.0233392
414 2 1.25 8.38454 7.62266 32.5737 -0.00280911
415 1 1 30.9582 7.36531 36.3282 -0.0205018
416 2 1.25 12.7412 13.3723 5.8838 -0.016705
417 1 1 30.049 2.31973 37.6702 0.0211457
418 1 1 6.51726 11.4517 26.5984 0.0087239
419 1 1 5.4458 20.8624 28.4087 0.00885689
420 2 1.25 35.7386 28.3 29.9345 -0.0256651
421 2 1.25 15.3764 11.0256 19.1447 0.0100108
422 1 1 33.1598 29.3667 18.8499 0.0114872
423 2 1.25 12.9256 28.5173 0.254457 0.0168953
424 1 1 29.8223 34.7088 29.1115 -0.0238647
425 1 1 23.4414 29.6525 19.8735 -0.0160903
426 1 1 3.6468 21.5593 15.9366 -0.0322358
427 1 1 31.4718 22.0076 32.4631 -0.000369075
428 1 1 22.0178 36.4551 32.9786 0.0370775
429 2 1.25 20.5211 31.1607 20.4092 0.0335696
430 1 1 34.4903 12.7742 39.1813 0.00204437
431 1 1 13.0775 2.66963 31.1355 0.022279
432 2 1.25 33.4101 35.884 13.5426 0.0202517
433 1 1 32.1391 21.6325 18.0064 -0.0550384
434 1 1 31.798 38.8298 2.28817 -0.0112546
435 1 1 28.2203 10.281 15.6355 -0.0124916
436 1 1 10.5033 32.8355 0.187256 0.0418699
437 1 1 25.844 28.6724 37.1744 -0.0177995
438 1 1 26.9486 22.7306 16.2751 -0.014451
439 1 1 25.2116 14.5703 16.2278 0.010266
440 1 1 14.1269 19.8184 20.6587 -0.0087184
441 1 1 36.5165 8.07345 13.0772 0.0167517
442 1 1 23.7928 34.6469 1.60827 0.00511072
443 1 1 18.8135 2.52517 20.5891 0.0173505
444 1 1 22.4348 30.3511 9.53572 0.000506499
445 1 1 24.4433 18.7924 33.2208 0.0312787
446 2 1.25 26.4083 14.446 14.4237 -0.052362
447 1 1 9.25651 38.3183 10.6493 -0.00350322
448 2 1.25 6.72787 14.692 29.6522 0.0282405
449 1 1 27.0556 28.01 0.415014 0.00333633
450 1 1 13.3868 34.8828 12.5576 0.01175
451 1 1 23.4406 13.1315 5.20348 -0.0233127
452 1 1 14.7375 33.011 37.9315 0.0234883
453 1 1 33.2151 4.42106 12.8416 -0.00524356
454 1 1 8.83964 12.9798 39.4197 0.0142732
455 1 1 21.9503 29.6505 33.7758 -0.0152526
456 1 1 7.78181 35.7188 4.19662 -0.0258721
457 1 1 29.1421 29.2641 27.6373 -0.0227856
458 1 1 5.06272 17.2967 19.0044 0.00801841
459 1 1 21.0963 35.1496 26.6655 -0.0218835
460 1 1 31.7788 22.6831 37.8157 -2.33177e-05
461 2 1.25 1.56582 21.5783 10.855 0.00311529
462 1 1 20.6466 27.9766 8.91838 0.0152151
463 1 1 23.9141 11.1764 36.1057 -0.0136347
464 2 1.25 4.3727 4.05335 38.2898 0.0136105
465 1 1 4.312 6.61284 6.17489 -0.0268694
466 1 1 3.91266 16.8719 25.7924 -0.00180914
467 1 1 31.9746 31.994 28.4175 0.0154791
468 1 1 18.5868 27.6974 37.832 -0.0145557
469 1 1 20.3415 12.0751 30.6124 0.0015866
470 1 1 8.99399 8.45954 18.4762 0.0261604
471 1 1 24.2508 23.2889 5.06378 0.0020381
472 1 1 4.41054 10.3811 28.661 -0.0318516
473 2 1.25 16.6195 32.2248 37.4432 0.0169971
474 1 1 15.6084 1.57322 21.7379 -0.0131588
475 1 1 30.7093 13.1005 19.9147 -0.0128617
476 1 1 10.3197 36.9192 19.4966 -0.00495932
477 1 1 20.7349 6.83904 3.76311 -0.0189489
478 2 1.25 3.50734 31.9134 31.0267 0.0239919
479 2 1.25 7.2618 35.1799 25.6753 0.00514545
480 1 1 25.89 39.5473 39.6184 -0.0399751
481 2 1.25 17.5559 19.9066 23.5562 -0.0137189
482 2 1.25 2.88769 26.4567 3.47449 0.0193328
483 2 1.25 22.3909 27.8414 19.3339 -0.0593965
484 2 1.25 23.8042 8.84795 25.415 0.000814444
485 1 1 14.735 5.26339 15.0912 0.0103661
486 2 1.25 9.82549 9.741 23.5763 0.0396759
487 1 1 34.7992 33.2052 10.9529 0.0216538
488 1 1 23.8248 31.0964 37.3647 0.0131343
489 1 1 36.2249 15.6081 7.25701 -0.0075286
490 2 1.25 30.2136 4.76632 6.26075 -0.0395169
491 1 1 14.8265 33.6104 23.512 -0.00656017
492 1 1 22.8297 37.1196 24.0706 0.0305555
493 1 1 19.499 10.1597 10.4955 -0.0180307
494 1 1 19.7235 7.17439 2.16759 0.0121123
495 1 1 7.17983 10.6041 9.52586 -0.000798003
496 1 1 23.3439 32.9928 32.1495 -0.0155565
497 1 1 32.029 30.3027 33.9983 -0.0117621
498 2 1.25 30.6284 9.09172 0.133507 0.0252334
499 1 1 5.39238 24.6728 7.11354 -0.0216196
500 1 1 10.0434 12.9036 9.22642 0.00105007
501 1 1 22.6251 24.4897 28.3435 0.0266181
502 1 1 15.3167 33.8162 36.3157 0.00894315
503 1 1 29.318 10.6955 31.9008 -0.0194471
504 1 1 4.08084 18.2075 24.3837 -0.0253632
505 2 1.25 27.7466 15.7394 30.0352 0.00559449
506 1 1 33.3955 2.87384 5.09961 0.00748749
507 2 1.25 34.6294 16.8192 17.3182 -0.00628027
508 1 1 38.1758 30.0651 38.4613 -0.0185198
509 2 1.25 8.76646 3.17104 15.53 0.0238652
510 1 1 19.6989 21.9514 39.2963 0.0016213
511 1 1 19.9914 16.3458 39.4695 -0.0174043
512 1 1 10.9522 26.4764 37.7514 -0.0121862
513 2 1.25 26.544 11.3347 20.2516 -0.024628
514 1 1 39.5983 34.8105 16.1868 -0.0035135
515 1 1 11.3011 38.2095 18.4498 0.0345016
516 1 1 12.3816 2.12437 22.5704 -0.00518983
517 2 1.25 5.69857 3.79449 22.8438 0.013307
518 1 1 10.2538 14.6667 29.5413 0.0062262
519 1 1 33.2665 15.3687 39.5096 0.0275864
520 1 1 37.09 8.26449 29.969 0.00374503
521 1 1 24.608 36.7476 24.2439 0.0475224
522 1 1 27.8482 28.7389 14.7327 -0.0138298
523 2 1.25 11.7965 0.611802 18.972 0.0187068
524 1 1 25.162 11.7339 18.8148 0.0242918
525 1 1 9.27203 10.5631 25.5141 -0.0176763
526 1 1 36.6189 34.5329 9.81438 -0.0409341
527 2 1.25 15.0358 35.5723 11.2116 0.0367788
528 1 1 37.5922 25.0493 5.50392 -0.0103393
529 1 1 33.1288 26.1203 21.7221 0.0209543
530 1 1 10.1474 1.90767 8.66953 0.0198792
531 1 1 13.4589 25.35 0.128584 0.0031153
532 1 1 8.20346 29.9852 34.1882 -0.00313231
533 1 1 20.0366 5.88877 33.391 -0.00579053
534 1 1 19.3697 4.33088 34.118 -0.0213763
535 2 1.25 24.8156 3.42738 34.4274 0.00921447
536 1 1 0.595116 1.17041 0.49364 0.00109586
537 1 1 26.7827 15.8734 20.3036 0.0151896
538 1 1 29.7652 1.32655 28.0291 -0.0015932
539 1 1 29.3825 17.6505 22.7606 0.0221764
540 1 1 12.2439 7.25608 14.9211 0.0234212
541 2 1.25 35.7621 9.49249 15.5074 0.0233014
542 1 1 33.4131 38.2639 29.0422 0.0235983
543 2 1.25 15.7785 12.1593 27.288 0.00924284
544 2 1.25 34.923 37.4843 3.59973 -0.0208607
545 1 1 19.7428 4.21396 10.0089 0.0613553
546 1 1 35.459 7.89862 5.28857 -0.0349607
547 1 1 20.4192 11.979 14.1476 -0.000898005
548 1 1 31.9321 33.7606 27.4495 -0.00402284
549 1 1 15.4767 26.7695 9.03493 0.0193641
550 1 1 24.6458 27.4168 23.1031 0.0173103
551 1 1 14.7484 13.8015 6.46926 0.0148044
552 1 1 30.8497 20.0968 13.4752 -0.0202353
553 1 1 31.442 9.73066 32.216 0.0077362
554 1 1 13.7198 33.9011 18.5174 0.0263866
555 1 1 22.501 26.2818 39.3491 0.00223062
556 1 1 23.1752 24.5533 22.9081 -0.000227456
557 2 1.25 36.0439 34.7481 7.74546 0.0349522
558 1 1 7.04455 9.96941 30.2504 0.000731792
559 1 1 8.13688 36.9425 26.4414 -0.0127338
560 1 1 7.33069 33.6725 34.7358 0.0372438
561 1 1 36.1191 22.3135 20.4878 -0.0253013
562 1 1 5.88431 18.1671 21.6403 0.0298658
563 1 1 8.00084 25.4365 0.831626 0.0242899
564 1 1 13.1385 21.3023 13.1659 0.0367102
565 1 1 23.36 14.7943 4.37719 -0.0275567
566 1 1 35.8003 25.0653 27.592 -0.0218997
567 1 1 26.7285 29.4589 32.592 -0.00940824
568 2 1.25 19.8047 7.12489 16.2119 0.0013139
569 1 1 33.4007 7.52651 13.7251 -0.0337481
570 1 1 39.5153 32.5602 8.88926 0.0117452
571 1 1 0.0889698 2.04355 17.2856 0.00843806
572 1 1 16.7358 16.5844 6.08845 0.00492127
573 1 1 17.1874 24.6122 39.0226 -0.0206153
574 2 1.25 8.55497 13.8358 10.4342 0.00320995
575 1 1 11.3553 7.52717 0.58208 0.0211423
576 1 1 16.9043 10.1498 34.4765 0.0133197
577 1 1 21.5685 36.1768 38.1592 0.00427742
578 1 1 22.7707 3.89543 34.8241 0.0152375
579 2 1.25 23.3724 35.046 15.5574 0.0476754
580 1 1 23.6698 3.37932 36.3555 -0.0164184
581 1 1 23.7232 3.37144 27.8186 0.0120395
582 1 1 16.6626 2.91454 9.41895 -0.0027718
583 2 1.25 9.66065 9.71281 27.4627 0.0190208
584 1 1 29.4113 20.6684 20.9979 -0.0370347
585 1 1 24.4985 38.5836 24.8356 0.0278347
586 2 1.25 23.8232 36.6839 22.2352 0.00331891
587 1 1 12.8617 37.3759 17.6511 -0.0246846
588 2 1.25 23.2692 29.7984 26.8036 0.00995826
589 1 1 8.50021 2.06407 11.2964 -0.0272723
590 1 1 34.6134 22.7639 19.4827 0.00575553
591 2 1.25 17.6359 31.0916 25.4079 -0.0182886
592 1 1 26.1467 6.29059 16.3409 0.00769341
593 1 1 20.8952 15.7956 18.799 -0.0098992
594 1 1 12.8678 30.7315 16.0848 0.0174532
595 1 1 28.6446 19.2633 28.7135 -0.00414225
596 1 1 36.7022 20.5445 35.2433 0.0359756
597 1 1 8.74152 34.4009 3.15787 -0.00907412
598 1 1 18.4108 39.4164 30.9792 -0.00116333
599 1 1 6.26291 5.91511 6.85798 -0.0026423
600 2 1.25 27.9958 8.74742 10.6263 -0.00104879
601 1 1 31.3887 19.6823 34.8958 0.0227452
602 1 1 1.80026 16.6084 22.3821 -0.0519649
603 2 1.25 23.3593 32.9337 6.26619 0.0250711
604 1 1 11.3032 39.2732 36.7531 0.0072141
605 2 1.25 30.1888 30.1154 6.8309 -0.0219963
606 1 1 13.0133 5.60765 19.0595 0.017641
607 1 1 30.3309 25.0119 25.272 0.0397904
608 1 1 25.912 29.7636 34.3149 0.0336666
609 1 1 25.1363 6.71826 23.3672 -0.00575202
610 1 1 5.88441 35.4746 4.17712 -0.0195128
611 1 1 13.3031 22.8925 18.1447 -0.0013061
612 2 1.25 32.0166 20.2687 9.75848 0.0780039
613 1 1 28.5842 5.94243 27.1505 -0.00859636
614 1 1 23.8559 7.34166 9.25735 0.00877455
615 1 1 5.77904 5.24333 8.57702 0.0405422
616 1 1 37.1657 0.969972 0.236953 0.00649737
617 1 1 1.00098 38.1416 12.6479 0.0193458
618 1 1 21.4603 34.7557 35.3309 0.0175358
619 2 1.25 7.21461 26.9255 38.296 0.0211899
620 1 1 38.5524 4.24629 6.51282 0.00402947
621 1 1 30.9517 0.928191 2.94969 0.0233464
622 1 1 20.1407 33.9066 36.4906 0.000804075
623 1 1 0.355154 21.3877 34.562 0.0132133
624 1 1 35.8028 33.249 34.1059 -0.0124793
625 1 1 30.3917 4.31393 20.2774 -0.0498394
626 1 1 7.67866 32.7775 36.3656 0.00325927
627 2 1.25 7.23953 35.4333 14.9861 -0.00778482
628 2 1.25 29.4112 17.1918 28.9086 -0.00973769
629 2 1.25 36.8058 8.22891 9.66897 0.0317056
630 1 1 25.0186 32.0526 32.5085 0.0179993
631 1 1 14.8391 4.32355 2.9495 0.00814
632 1 1 14.2662 32.6298 9.55238 -0.0482684
633 1 1 33.6098 26.4496 39.3669 -0.00238182
634 1 1 30.1586 36.3138 21.1442 0.0147841
635 1 1 33.095 4.7208 30.5759 0.0153166
636 1 1 37.6743 32.4669 9.27935 0.00801487
637 1 1 8.62671 21.2381 15.846 -0.0160692
638 1 1 19.1936 38.555 23.6729 0.00783527
639 1 1 37.5219 18.706 16.531 -0.0445355
640 1 1 31.4669 28.8293 18.1026 -0.0314299
641 1 1 2.50866 4.74692 32.5447 0.00669727
642 1 1 24.6384 1.9799 22.2887 0.0122422
643 1 1 28.934 4.14834 7.79088 -0.0125548
644 1 1 31.6182 5.91188 34.7571 -0.0262814
645 1 1 36.0088 1.18774 15.1644 -0.00406394
646 1 1 6.68966 21.7532 4.32011 -0.0110627
647 1 1 2.06258 38.6963 38.3706 0.0270736
648 1 1 14.0408 27.5664 3.35452 0.0114928
649 1 1 6.73035 0.168772 17.9126 -0.000828463
650 1 1 37.1381 28.0683 23.2134 -0.00720389
651 2 1.25 22.1285 27.4313 1.40593 0.000601891
652 1 1 30.5389 37.5436 1.50689 -0.013652
653 1 1 32.7137 30.6462 0.535195 -0.00812423
654 1 1 8.65183 36.4148 24.6232 -0.00824224
655 1 1 5.62237 11.2608 30.1143 -0.0130556
656 1 1 31.6125 5.46768 19.7177 -0.0430403
657 1 1 8.91875 36.3811 12.4225 -0.0188756
658 1 1 31.8384 8.80876 33.8442 -0.0214428
659 1 1 7.8879 30.1932 1.54117 -0.00213216
660 2 1.25 25.2067 22.0243 15.2211 -0.013054
661 1 1 9.09048 30.7736 6.34455 -0.0176851
662 2 1.25 18.1716 39.3122 7.05848 0.0323851
663 1 1 19.6855 33.7276 5.80394 0.00845971
664 1 1 29.4292 27.0356 1.0205 0.0188279
665 1 1 18.6367 37.9268 5.56172 -0.00298529
666 1 1 29.2934 25.4453 23.7277 -0.0298879
667 1 1 20.3296 20.8736 16.88 -0.0136333
668 1 1 2.65945 12.9573 23.8821 0.0205922
669 2 1.25 25.6709 36.1951 38.579 0.0421471
670 1 1 4.09192 27.4585 25.3269 -0.000555134
671 2 1.25 19.2825 13.7155 19.8569 0.0467226
672 1 1 31.5948 22.4917 35.9188 0.0327586
673 1 1 4.42426 11.1263 2.10838 -0.00778216
674 2 1.25 19.8689 30.7535 11.6012 -0.0124384
675 1 1 8.25313 13.6432 18.1669 -0.0157602
676 1 1 30.1955 20.4016 15.1583 0.0260745
677 1 1 36.1321 39.4403 24.7364 0.011782
678 1 1 5.28708 24.2222 16.2975 -0.0142159
679 1 1 39.1702 10.8638 28.1046 0.0139814
680 1 1 21.324 7.46183 28.049 -0.0103015
681 1 1 1.90943 7.14491 2.37681 -0.0113599
682 1 1 36.271 33.7183 5.92539 -0.0412675
683 1 1 17.1091 4.58351 23.2407 -0.00786156
684 1 1 37.9473 10.0182 1.374 0.0207669
685 1 1 13.5799 7.38857 26.0285 0.0229276
686 1 1 39.0973 24.8235 2.97516 0.00422491
687 1 1 15.4496 5.61498 9.48421 -0.0232392
688 1 1 1.47012 35.0039 31.7855 0.0134302
689 1 1 15.5845 33.1015 28.7719 -0.00185091
690 1 1 23.3764 16.5475 14.7451 -0.0241535
691 1 1 2.89325 11.9126 22.238 -0.0233373